LAMMPS data file via write_data, version 28 Mar 2023, timestep = 2200120, units = metal

194 atoms
2 atom types

0 16.235171696043132 xlo xhi
0 14.060071123575442 ylo yhi
0 39.113473999158245 zlo zhi

Masses

1 55.845
2 14.007

Atoms # atomic/kk

1 1 2.0293964620053915 1.171672593631287 0 0 0 0
2 1 6.088189386016174 1.171672593631287 0 0 0 0
5 1 0 4.686690374525149 0 0 0 0
6 1 4.058792924010782 4.686690374525149 0 0 0 0
17 1 0 2.343345187262574 0.8284976362871125 0 0 0
18 1 4.058792924010782 2.343345187262574 0.8284976362871125 0 0 0
21 1 2.0293964620053915 5.858362968156434 0.8284976362871125 0 0 0
22 1 6.088189386016174 5.858362968156434 0.8284976362871125 0 0 0
37 1 1.9744176628380985 3.479923873557062 1.4772235874451891 0 0 0
38 1 6.108522030348996 3.413280988614804 1.3261087638515288 0 0 0
49 1 2.0900539504870523 1.1030047696605143 2.500661824392374 0 0 0
50 1 6.01698161969966 1.2471281952669266 2.401467272134585 0 0 0
54 1 4.119092339008611 4.59110451139544 2.3747696750879013 0 0 0
66 1 4.00686256715089 2.3657889251185034 3.195598310421585 0 0 0
69 1 1.9611612301211496 5.885677249066078 3.1893904639549877 0 0 0
70 1 5.9269592654598995 6.017364540014226 3.327452996689747 0 0 0
85 1 2.2064300762887807 3.652953131372598 4.035151626988441 0 0 0
86 1 6.244475163343606 3.7247098226934106 4.240731463651212 0 0 0
97 1 1.909827435602006 1.2977160612255525 4.941438779073526 0 0 0
98 1 6.142496921207271 1.234637546351177 4.934374265297928 0 0 0
102 1 4.214762027284706 4.704484767703058 4.757591722271447 0 0 0
114 1 4.012032750415424 2.399926931235663 5.653965051527266 0 0 0
117 1 2.130118948823331 5.967733589059904 5.901617157814158 0 0 0
118 1 6.312383371961001 6.073393117282567 5.685687777819752 0 0 0
133 1 2.0968067944440554 3.6978244701639977 6.616386930374394 0 0 0
134 1 6.020265124670765 3.5440713973920883 6.388975612064298 0 0 0
145 1 1.969975668971369 1.357883246511257 7.473340804638053 0 0 0
150 1 4.14743412073048 4.885531004488502 7.316337770399404 0 0 0
146 1 6.04380982631999 1.5164089765110866 7.411168601151977 0 0 0
41 1 16.18287169012266 7.004165125308289 1.1845218257194328 -1 0 0
67 1 8.176307396287381 2.368995896063835 3.119818010967061 0 0 0
82 1 4.014752038681567 0.10464034969587654 4.170349056440773 0 0 0
151 1 7.969268716013708 4.840468875515168 7.296384654087651 0 0 0
65 1 0.046696639005709355 2.316876446660945 3.2497325981692353 0 0 0
115 1 8.272273802597075 2.498778352438589 5.535193526168674 0 0 0
130 1 3.9291674086646675 0.14973012996014487 6.522768902011599 0 0 0
34 1 4.036010367044628 0.026524865002265308 1.4069057811090422 0 0 0
33 1 16.183869365865135 0.021292165300353716 1.4219396051725859 -1 0 0
55 1 8.142589324674654 4.737653078575563 2.3407796686843323 0 0 0
89 1 0.03888223247166067 7.081554684294415 3.9171931020440183 0 0 0
113 1 0.013463557685906125 2.420543463936286 5.8893360792756555 0 0 0
53 1 16.11005418399723 4.507664139678484 2.396747302241723 -1 0 0
101 1 0.005812849261438657 4.746039669435821 4.8609116263685905 0 0 0
103 1 8.088884696190508 4.890871425508812 4.904313275073131 0 0 0
3 1 10.146982310026956 1.171672593631287 0 0 0 0
4 1 14.205775234037745 1.171672593631287 0 0 0 0
7 1 8.117585848021566 4.686690374525149 0 0 0 0
8 1 12.176378772032349 4.686690374525149 0 0 0 0
19 1 8.117585848021566 2.343345187262574 0.8284976362871125 0 0 0
20 1 12.176378772032349 2.343345187262574 0.8284976362871125 0 0 0
23 1 10.146982310026956 5.858362968156434 0.8284976362871125 0 0 0
24 1 14.205775234037745 5.858362968156434 0.8284976362871125 0 0 0
39 1 10.16050839508014 3.6607614438298324 1.6429491325601857 0 0 0
40 1 14.21978060670936 3.413819458029125 1.8866621820148628 0 0 0
51 1 10.01771231373008 1.1488813125890052 2.407883262279099 0 0 0
52 1 14.178827063726523 1.1167155463753546 2.4295826403079364 0 0 0
56 1 12.073360557614611 4.85963303040903 2.4639745288043216 0 0 0
68 1 12.046458703246115 2.357968143899728 3.1230315805512294 0 0 0
71 1 10.07227359672318 5.9570006700157165 3.260652323432197 0 0 0
72 1 14.15820905651293 5.865859710799178 3.1313028920475485 0 0 0
87 1 10.173021234045384 3.7186845591460713 4.035395495354759 0 0 0
88 1 13.986537597691575 3.633268098005391 4.03134530769484 0 0 0
99 1 10.154580170198642 1.2209204067757295 5.06394875557849 0 0 0
100 1 14.24347650081921 1.3760374673454743 5.128378937758953 0 0 0
104 1 12.037813955970192 4.913632695606945 5.016644917502325 0 0 0
116 1 12.103731148066093 2.495481339799939 5.624274300306721 0 0 0
119 1 10.129555264881143 6.077744579737972 5.939101029318147 0 0 0
120 1 14.319560473449233 5.9211138442945925 5.681714449330285 0 0 0
135 1 10.233098402387807 3.6719265932315235 6.703039984276331 0 0 0
136 1 14.180099717208915 3.441624352668818 6.592800930809076 0 0 0
152 1 12.150901773006295 4.835649071596218 7.540765111857397 0 0 0
83 1 8.106837836630287 13.983996165756027 4.132543484999458 0 -1 0
148 1 14.347414638498474 1.2477947604380717 7.5074407933656016 0 0 0
81 1 0.02874170760475181 0.06402247691860803 4.046420258057575 0 0 0
43 1 8.00233679851311 6.998386514566678 1.4373876429629648 0 0 0
129 1 0.12619011694534166 0.13181657337298527 6.582118689884991 0 0 0
131 1 8.177785822436787 0.1173095869349652 6.804904766663258 0 0 0
132 1 12.0604541073923 0.19452229171128996 6.588005693180327 0 0 0
149 1 0.08297514170526554 4.904740733751826 7.4946923986527025 0 0 0
138 1 4.248164178319563 7.124192305766748 6.501521425090516 0 0 0
42 1 4.006053452015062 7.102785408361533 1.403701590471246 0 0 0
137 1 0.03201232603988536 7.157898819780202 6.4020898878683 0 0 0
35 1 8.261302051598639 0.03320399928464646 1.3810287993887982 0 0 0
90 1 3.919327254344835 7.226425805162866 4.157787980220193 0 0 0
9 1 2.0293964620053915 8.20170815541901 0 0 0 0
10 1 6.088189386016174 8.20170815541901 0 0 0 0
13 1 0 11.71672593631287 0 0 0 0
14 1 4.058792924010782 11.71672593631287 0 0 0 0
25 1 0 9.373380749050297 0.8284976362871125 0 0 0
26 1 4.058792924010782 9.373380749050297 0.8284976362871125 0 0 0
29 1 2.0293964620053915 12.888398529944155 0.8284976362871125 0 -1 0
30 1 6.088189386016174 12.888398529944155 0.8284976362871125 0 -1 0
45 1 2.1757812330774846 10.498862556113925 1.4915379619998805 0 0 0
46 1 6.103974775372292 10.531124710408196 1.6074789589863259 0 0 0
57 1 2.0113364206179924 8.224917015847515 2.3857577709731084 0 0 0
58 1 6.035563828211872 8.33142223798953 2.3189529002256672 0 0 0
62 1 4.064148187451068 11.878233328031225 2.284077064703256 0 0 0
74 1 4.074632554808974 9.570646675230853 3.326872932003164 0 0 0
77 1 2.0039256278967343 12.881551031513649 3.189984325328022 0 -1 0
78 1 5.891947901294228 13.02733603138003 3.445884203872736 0 -1 0
93 1 1.9545259460289641 10.476226655243002 4.117767232313865 0 0 0
94 1 6.140736161774378 10.581792680322204 4.053421721411319 0 0 0
105 1 1.9832170651261247 8.20088192720288 4.968400898999895 0 0 0
106 1 6.176312768680443 8.28718222134795 4.837086734545129 0 0 0
110 1 4.010978251099237 11.844187674791863 4.8993317303998305 0 0 0
122 1 4.281074628974148 9.665454187173932 5.741155147711717 0 0 0
125 1 2.0172901408481763 13.031834907125694 5.839351486817437 0 -1 0
126 1 6.077825230029457 13.115913088818134 5.830924549516988 0 -1 0
141 1 2.072727205304965 10.678584616581954 6.715578431523274 0 0 0
142 1 6.201257024114649 10.726801513848303 6.865142872761289 0 0 0
154 1 6.216797883425749 8.270807502706164 7.2494530049942565 0 0 0
158 1 4.038870149277803 11.982705291073701 7.487348719698839 0 0 0
153 1 2.1276318833837635 8.27108708122057 7.3758039765554955 0 0 0
121 1 16.21275829749615 9.40975201096268 5.996609291703745 -1 0 0
157 1 0.01654782658742538 11.925427918997316 7.505612102338577 0 0 0
139 1 8.322750295020136 7.161790564968771 6.7477690850739664 0 0 0
91 1 8.10196503678636 7.049145744468359 3.8757444819802545 0 0 0
92 1 12.130043779193693 7.204966038965549 4.0431564420915915 0 0 0
36 1 12.075030076357221 0.13135260944526905 1.4716333071775587 0 0 0
61 1 0.030207338738353684 11.836192410535379 2.560026362933245 0 0 0
123 1 8.197902014246267 9.496326285431929 5.941115391242641 0 0 0
75 1 7.947409145984915 9.493306098101707 3.263574396465284 0 0 0
84 1 12.180869728039415 0.25530998287116624 4.028700619279191 0 0 0
44 1 12.208882060162194 7.010951127300282 1.4708911459905507 0 0 0
140 1 12.254939059060161 7.045691393736281 6.539017681232901 0 0 0
63 1 7.934774758470697 11.817492213088576 2.550729323797089 0 0 0
73 1 16.16976317587936 9.439020230734826 3.315123074561358 -1 0 0
109 1 0.017648863524403424 11.854907931371809 5.057943790179364 0 0 0
111 1 8.086837638276396 11.777816804925797 4.997956585414421 0 0 0
159 1 8.220304780744483 11.955825107476617 7.5803483479639295 0 0 0
11 1 10.146982310026956 8.20170815541901 0 0 0 0
12 1 14.205775234037745 8.20170815541901 0 0 0 0
15 1 8.117585848021566 11.71672593631287 0 0 0 0
16 1 12.176378772032349 11.71672593631287 0 0 0 0
27 1 8.117585848021566 9.373380749050297 0.8284976362871125 0 0 0
28 1 12.176378772032349 9.373380749050297 0.8284976362871125 0 0 0
31 1 10.146982310026956 12.888398529944155 0.8284976362871125 0 -1 0
32 1 14.205775234037745 12.888398529944155 0.8284976362871125 0 -1 0
47 1 10.108747040987643 10.698962219509363 1.3432956054237273 0 0 0
48 1 14.22156629090338 10.611591271460409 1.3281769543655753 0 0 0
59 1 9.97125579045194 8.254874477274114 2.3563076847000537 0 0 0
60 1 14.065034178660975 8.309522738815755 2.41108042333648 0 0 0
64 1 12.333065768613432 11.922142339723663 2.3901324067037133 0 0 0
76 1 12.159648146281148 9.37421656066572 3.2433490937975065 0 0 0
79 1 10.138070191570204 12.935258678351369 3.292206696704097 0 -1 0
80 1 14.173182538986781 13.091420556511075 3.3323820933010464 0 -1 0
95 1 10.096118603659685 10.470625797798695 3.9250256663510474 0 0 0
96 1 14.306363626982556 10.769944371302962 3.767820498541205 0 0 0
107 1 10.224140833375097 8.289793612082407 4.925750396394486 0 0 0
108 1 14.261891355952116 8.233848290645405 4.769786314312776 0 0 0
112 1 12.059408796028785 11.863340047603076 4.755790105337227 0 0 0
124 1 12.329565302786488 9.575706975423866 5.50494213609006 0 0 0
127 1 10.012260778363824 12.95830417425942 5.960873904891594 0 -1 0
128 1 13.919066028192637 13.039822955711438 5.6824312400674355 0 -1 0
143 1 10.125411295159115 10.705250082559411 6.653762188916776 0 0 0
144 1 14.202301198793224 10.718306743188352 6.354031690893022 0 0 0
155 1 10.443074022489885 8.565259612796318 7.516539844950408 0 0 0
160 1 12.096423633095487 11.947147845901089 7.12195078615651 0 0 0
156 1 14.205182427095743 8.308461435927779 7.261858249682578 0 0 0
185 1 1.9179787381321656 5.957286221902119 8.330990862546685 0 0 0
162 1 3.995205898091551 2.6776296409015847 8.221253376300979 0 0 0
181 1 1.9623591228041064 3.73556433693771 9.142679770826769 0 0 0
182 1 6.102845640104785 3.7656442486701334 8.964502065278504 0 0 0
178 1 5.846310191871663 1.6365139698216014 9.797518232346292 0 0 0
177 1 1.7022292558198775 1.1449703482839175 10.24739123409102 0 0 0
165 1 4.15573726794326 5.125104555201982 9.556619780907413 0 0 0
172 1 6.058243348514643 6.131184832914662 8.282072838031619 0 0 0
163 1 7.871641672312129 2.4915739823183043 8.259480491649402 0 0 0
173 1 3.858409901426591 0.3085878728108065 8.973049228633476 0 0 0
179 1 8.194662922533592 0.4732481175424353 9.471017803680743 0 0 0
147 1 10.10535059922686 1.4670727563513615 7.839046957530707 0 0 0
161 1 0.1314372451774659 2.504247650169806 8.329507486075732 0 0 0
164 1 12.24382469157048 2.662695739982688 8.20416377556765 0 0 0
168 1 14.471971425817905 6.012238944104655 8.229635693253327 0 0 0
167 1 9.78918613774232 3.688780423417833 8.950238025419543 0 0 0
184 1 14.343625044237157 3.954852352364215 9.160467520373597 0 0 0
192 1 9.881111682073547 5.854999865427604 8.26558813759169 0 0 0
175 1 12.321038640337346 0.5543984243820952 9.153197898234339 0 0 0
183 1 15.872231344636656 0.37541807625979595 9.119616141846288 0 0 0
166 1 3.9618635435561256 7.255702336960913 8.750856509462704 0 0 0
186 1 4.3071431756879806 9.495078395466132 8.087280105479833 0 0 0
189 1 1.860088599050254 13.153608107065724 8.451669079241354 0 0 0
174 1 6.107041923473465 13.120545757223018 8.318459509963343 0 -1 0
170 1 1.0622579739016778 9.814143920683101 8.897523952422885 0 0 0
169 1 16.19509035582961 7.870535736628913 8.680664366916432 -1 0 0
188 1 12.363696502296486 7.365667838708447 8.839653465896454 0 0 0
187 1 8.072589457338388 9.444957419388224 8.422308280974745 0 0 0
194 2 13.574567851221882 11.138620838734678 8.024808742240056 1 -13 0
180 1 14.162560032316456 12.909951722419732 8.073365740739003 0 -1 0
171 1 10.524023326875271 13.084947528430199 8.543503076365491 0 0 0
190 1 12.331148805148944 9.709335097253701 8.13069481550088 0 0 0
191 1 10.079068728724636 10.67728962980043 9.052895215218628 0 0 0
176 1 15.036715257771558 10.070465978156482 8.646567677304954 0 -1 0
193 2 12.345142085120393 12.901074930099206 8.539360520652792 1 -13 0

Velocities

1 -0.7465210331800987 -2.142200115454837 -2.6941329559283704
2 -3.1911036254086955 4.780719719200762 -2.504160805140002
5 -5.782863752443262 4.897398819745096 -4.388508717543707
6 -1.6245126529118403 -4.198292130462299 -3.215120992287677
17 -1.8428350242743328 -4.982763969106829 3.2213209748088834
18 0.7492108232071273 -2.1266459776149147 -0.4999462472114426
21 1.297351665543366 4.50908695141872 5.639359886749037
22 -4.959594312783723 -2.372966889569377 9.367275565904686
37 2.335633843360106 -6.159859168863112 -0.5890220025620255
38 1.0363946682594705 0.2677862663698428 -3.4289358010927775
49 -3.7934871236082217 2.9815543153891566 -1.2471267120422147
50 2.7283358464228114 3.1770229820913154 -5.194587232910474
54 7.120180803854466 -3.6397917475524872 5.40611410994917
66 -4.188451956959632 2.805524696807537 3.4502739735162438
69 1.7326481918426917 1.985791734448706 0.222956138146488
70 -0.12717085548115892 -0.9077806353450767 -4.247577225265146
85 -3.276077693004224 6.743551686480085 -1.3804505469819237
86 -5.598002597741534 -3.891606131681631 -1.1190409327897233
97 0.6463892195617622 -1.791476377887627 1.816924012665836
98 1.1848919663707058 -0.19233498634221116 3.1484497533896203
102 -0.39047004091492277 -0.9653848118720687 1.3141746862205959
114 4.9784955756577505 -3.235227476725866 -5.716407144332963
117 6.189836563931206 -0.4280594499443534 -3.0989222955254156
118 1.6072982733363395 0.3333286193979962 7.953405937184601
133 -2.124216055528062 -4.688349006094513 2.519328757095609
134 1.8300842690712575 -2.4859629331465594 -0.7906566149512909
145 2.0918746184818273 0.38345351105672143 -2.723549840421236
150 4.363042566266633 4.368536419483415 0.5801486733223157
146 -2.629209226917333 0.8323599846280045 -5.720999074186688
41 0.8182952493811849 2.1631742407801657 -2.41256940993292
67 2.4209848881533107 -1.9044730665194898 -2.6499250313621707
82 -2.101835216560226 2.168447636621747 -1.834000720680975
151 -3.057997468828122 0.2883481922260109 -0.33601372236581944
65 -2.8221465109544925 1.318667475426006 4.031970949101469
115 -0.587198421760205 -3.3835306253076243 -6.644070875916984
130 3.1874024399388396 0.9791136645830144 -0.7340902451435917
34 -0.828951184241041 -2.6345246715472546 -2.0258457573900874
33 -7.13467982738052 0.07257223815675821 -3.838109381806832
55 -4.270070219617235 0.9288957970498466 0.8811703359293934
89 0.3965774620248204 0.9042626350189982 0.6846229614472239
113 0.8504102871591863 0.9972128076272971 0.7057375834479579
53 9.867300111200851 1.547577508783591 3.97168442299789
101 8.186403921595844 0.9824202382682129 -1.5584088519606472
103 -0.14903649056387802 4.371618803631598 -2.1581361581207954
3 6.4210508503451145 2.853647937445761 1.1941905696779747
4 -0.9578927783062369 3.87776852845151 -0.7578670714862655
7 0.47890266466993103 2.7495010083386324 0.48664663308319384
8 -3.645469118030913 1.460011890895224 -1.9128337704902811
19 -1.1590130434329098 -1.3661702865072742 5.018740484105559
20 3.772842138551573 -0.9854779262475878 4.044804860412615
23 -0.8857167994560955 4.834242645969713 2.05436297846631
24 -0.37231977179193304 0.7717409792430506 4.817317656034527
39 -0.881459172121389 -0.6930411549132158 8.237211804998617
40 5.848328862296135 0.5799082113970342 2.894030530769301
51 -0.3336142742757125 3.11580432459352 -5.160442119712222
52 -3.999564972861949 1.0809357835613826 -4.716330807391314
56 3.8495473425996862 -6.576874230529673 0.5130204138252055
68 0.8417170457079987 5.932693271546107 7.1912251422121045
71 -1.5812053692368409 -1.2089380724370018 0.28336093483148433
72 -5.265126951161782 0.1740695889643787 -0.1781792651450818
87 4.326819660019199 -0.44166605299430817 -0.4487493866260575
88 -6.281392610545586 0.15664767543103844 0.0034421567584828248
99 -1.529591436937275 -1.901864731391368 5.621512827325862
100 4.523126771498482 4.627111878683713 2.609491130635303
104 3.834193562567595 -4.405947718320448 -2.3832087718275807
116 -1.8359270728442467 -0.2811662848291512 -2.6462129395166767
119 -1.6897489926979938 -0.7628157046454372 -4.159573446843312
120 -4.311376608429685 -1.0012268561923046 2.910091449310254
135 5.153968470066671 -1.9486716305768779 -1.9588695741939077
136 -2.9784991997584362 -5.679901017237668 0.41710779857955843
152 0.8387933241251616 -2.9415682136256844 4.922719928840696
83 -2.624854968335059 -0.48722197446540694 -2.3223408355101687
148 -3.8353531937918643 -0.7729479974414019 -7.648919306791161
81 8.548376507336366 0.5265299304512168 -2.6692585656469823
43 -3.15636189991599 5.907068624025498 -1.2135411562961318
129 2.1304502203721487 -2.7477521986990596 -1.7943583466661222
131 -7.047795910085688 -1.9061314119952968 -0.21582859760647294
132 -0.25133093376874444 -0.015880431895019198 0.8490178074328036
149 0.4988757801756083 -3.9513137000666636 3.496691503426951
138 -4.947311817611009 1.5078568144322744 5.499134478096339
42 -5.534549931354219 0.4706651515951576 2.1816850883475793
137 1.874064957575229 -0.9819232063816533 -2.0858801951753305
35 -0.8287453141026035 -0.3460574487250119 -0.37059608341396383
90 0.9866501781648707 -1.1923384340924403 5.665406306575969
9 0.9084833028864102 -1.3458409263812716 -1.9677716253270212
10 -1.4185565949891745 -1.487638102157431 4.6690706555516845
13 -0.9131152241388827 -0.3609160492484789 -1.284424524574469
14 -0.17690714094006305 -1.0691216061317683 -5.919370729122938
25 1.0609425071712766 1.9827120578014992 1.75938831342973
26 1.2440838750129986 -1.5488018526939706 3.9642768905854227
29 1.150926866691187 -1.3066619015163325 -4.359197873589539
30 -3.2411921415349125 3.505018191047354 -0.21850399684025118
45 2.3034875583442176 -4.387359914414046 -4.271090989888366
46 -5.109922263251264 -4.428774775989917 4.013061372473576
57 -2.406588891496985 0.07893575627500295 -3.381830607595182
58 -3.5603645542600577 -1.2231115253545406 3.8421167345951828
62 -0.9510451905964423 3.39636385352599 -0.7554459502983355
74 -0.039592615225709 -2.1301510956743464 2.7857181607907733
77 5.838265954083327 -0.6444038484426544 -1.1043342577846584
78 2.2987714500498084 -1.2163434601662027 1.574453159035384
93 -0.6935381219606518 -2.2010067089370273 4.288666116712818
94 -1.8542744278405194 -2.9803652410312114 7.273248558477013
105 2.0666304098293877 3.7255220956976474 -1.5654333817362394
106 -2.9350617910244194 -1.4434937624460222 0.7570552061469472
110 -0.06793507596878053 -1.4687094270479182 -8.174541704780593
122 2.778101608584362 3.3249086344650176 0.125639573196128
125 -1.942669612258282 10.551950043293372 1.6255321290127949
126 6.2552157711430425 1.5712716648291583 1.0356590127337617
141 2.665824679396879 -0.6839376024201345 -1.643757743896921
142 0.5239569887109519 2.5882206720029837 -0.30763356971666767
154 -4.690818511827409 -3.898232714887142 -3.932228238196353
158 -1.9909556051701272 0.9131811726863509 4.918269598286338
153 -3.423627672803745 -3.6913089671921857 -1.6464296744391957
121 0.6210417435708155 -3.857501020287625 2.309288008969143
157 -6.240341603433283 1.6660388327634816 -1.6384768296396885
139 -3.9182256006160685 0.6142278929131852 -4.965354514105152
91 -1.9567945352036655 0.17162793371775187 -1.7517407912930794
92 4.375740229269281 1.5833905205765242 1.3620358283989003
36 3.239054403730749 -1.033700774951414 -1.3088807892415746
61 5.842648694863561 -3.4534046633434925 3.229714693855389
123 -5.360279046929431 -2.0177594301779482 -0.29411251517108705
75 -6.634234410022903 2.821832831350288 2.429196298897326
84 1.1657240252435923 1.2648738350993858 -6.700612692228282
44 -2.0414567417485614 -4.731442872046011 -0.4652945206696333
140 -2.0868866245966604 1.5399099998911798 10.613899671133534
63 -0.4172369003010229 3.4059253788330697 2.6068683550958096
73 4.237524074459703 -3.6914805021407813 0.5450653749142749
109 -3.4797116760239812 2.379001575044445 -2.8650142127410456
111 -5.252816373315948 4.221570662017026 -1.1833020072022975
159 3.149746160495841 3.21008040247191 -2.736955558532246
11 0.5880790138800968 -0.17243257564658343 -2.832105355115193
12 0.16508924730879204 1.941452822776594 -4.662183485233587
15 1.5818852984250364 -7.334113801922982 -0.8853713267379784
16 3.7978719770269604 0.8740169145095862 0.44828191337420553
27 2.2249266476828273 0.7902726742528524 0.008967194268642517
28 1.5024793860689512 0.016872638562998858 -2.9413744625312828
31 -1.041544289146093 -6.43269942447693 1.4707785607975887
32 5.0150310382975105 -0.6117202445204851 -7.121909198090049
47 2.770552567251927 -0.11481310218741206 -0.884715533850232
48 1.3508167758893408 -4.248798777074828 1.8048349194417328
59 -0.23364591928656334 2.5471252563113618 1.6400687893057482
60 -2.5326148783643383 1.379702770503599 3.6091686994752252
64 -0.5578335562445331 10.91528636878904 3.744896653761682
76 3.6566319225111266 -3.659057371049365 1.9314441004769156
79 -3.7064988233607816 1.1670453372134526 -3.2949696968355293
80 1.8286321147313747 -1.1067887219989552 -3.493597522363119
95 -2.3746904373710835 -2.466189447167271 1.2271547335369755
96 3.8106017947427344 -3.84660862493095 4.58258852957496
107 1.3178709060176423 -1.960379404802919 -5.58108363838986
108 -3.4604355388106876 2.9529529273829245 -2.1106513771400395
112 1.8118698489489902 2.4910595763887935 -0.978508742234775
124 1.7756071784310135 -2.5764899706497775 -2.419036681326987
127 -3.9972373428661037 -1.5279199252014206 -2.3183904600856193
128 -2.5601760726610436 -1.6610057756042105 -3.687563998586875
143 0.17993660264269987 4.9752196722352 0.6320432698156229
144 0.7720063637859423 1.5329967267734548 -0.3040968754157066
155 1.8010964901098534 2.0101052302867615 3.2074574585833555
160 -3.3632535710340017 0.6285251000594432 0.6157639933208926
156 -2.4153161740521734 -3.3940382854443927 3.9265121109243304
185 -0.08192016604751365 -2.4798538595758934 -3.453663051952215
162 2.2312760153459563 2.405597445449989 -6.508809622206753
181 1.2559746226623378 6.981875333696937 -2.1278343436351497
182 2.3892273434590554 -5.3391665133324535 1.2691210317574362
178 1.6368902616216314 -3.336686645327674 -2.422612152472547
177 -0.4994043465280598 0.43462498669347976 5.881852940301688
165 3.855578530583317 8.28459215140885 -0.2532118678271851
172 1.7008253345069848 1.5791630914028478 -1.2705115027600733
163 -1.0950224417586414 0.16417034834032015 1.4794520517303624
173 -2.5731713353013412 -3.8660632888780655 -5.637242735336351
179 5.093136919275068 6.972591077404804 1.8473655114010545
147 -0.8619176960187707 2.315093213668145 -3.4137741547814526
161 0.5253649116107263 -0.8816207535705706 -3.758825887785857
164 -1.841555033371265 2.364017336623526 -3.4462129041548657
168 4.259474068318831 -4.246944531875312 -2.254748004921591
167 -1.8988727349000056 6.375849501475544 4.817798416757451
184 1.2590007841657576 -2.3032098337752895 10.850984490947722
192 3.880282797277426 -0.5964127509725707 -0.4137978665007372
175 3.2205793799777878 -1.1392517826027835 -0.8898739534763598
183 -5.015674112860862 -4.877451463735675 1.1921666694033752
166 0.18034333299066405 2.4918788759304467 2.265693779639257
186 2.0973641329982273 1.2130926496031602 7.8549868532908205
189 4.907136307858244 -0.7583686031775629 0.5873417473495507
174 0.6279976425691635 3.928043322499908 1.2004266547939921
170 -2.265977821962497 -2.590258924644835 -2.7543938969996056
169 -0.5259077566853415 3.51164505099327 2.662348598139728
188 1.294745060418283 0.9089754473426258 -3.5743436418830745
187 -0.7625413878608912 -1.6646411285831901 -1.1651642799497128
194 -3.807961898035563 -1.3690016900038822 -15.180879520224806
180 -6.404502025046365 8.560638298713384 -1.2918775121704174
171 -1.2954370503324917 -3.513901529764318 -3.755703291947085
190 -5.213337930910901 0.05565114286893035 -1.492960031067828
191 1.2693582620741521 1.302053675841532 -2.7746528017489256
176 1.5820970891328978 -2.2382008968856963 -6.3467402979966305
193 -6.835510003414795 4.283106540684531 4.2933363015890595
