74
Lattice="12.176378772032349 0.0 0.0 6.088189386016174 10.545053342681582 0.0 0.0 0.0 20.0" Properties=species:S:1:pos:R:3:move_mask:L:1:tags:I:1:forces:R:3:energies:R:1 energy=-498.431637534733 stress="0.0011818703831243092 -2.0165951572351107e-18 7.593666592006493e-18 -2.0165951572351107e-18 0.0010728978451809757 4.9230707913001274e-06 7.593666592006493e-18 4.9230707913001274e-06 0.0005316999322606682" free_energy=-498.431637534733 pbc="T T F"
Fe      -0.00000000       2.34334519       0.00000000  F        8      -0.03616518       0.03859103       1.88221767      -5.66178499
Fe       4.05879292       2.34334519       0.00000000  F        8       0.03616518       0.03859103       1.88221767      -5.66178499
Fe       8.11758585       2.34334519       0.00000000  F        8      -0.00000000       0.00614481       1.99535422      -5.65717700
Fe       2.02939646       5.85836297       0.00000000  F        8       0.00000000       0.03280819       1.95209905      -5.66723319
Fe       6.08818939       5.85836297       0.00000000  F        8      -0.00247444       0.00582343       1.88123781      -5.67116102
Fe      10.14698231       5.85836297       0.00000000  F        8       0.00247444       0.00582343       1.88123781      -5.67116102
Fe       4.05879292       9.37338075       0.00000000  F        8       0.01151776      -0.03848713       1.91336136      -5.66174062
Fe       8.11758585       9.37338075       0.00000000  F        8       0.00000000       0.00998191       1.89326324      -5.65805726
Fe      12.17637877       9.37338075       0.00000000  F        8      -0.01151776      -0.03848713       1.91336136      -5.66174062
Fe       0.00000000       0.00000000       0.82849764  F        7      -0.18890902      -0.11706525      -0.63621399      -6.63442239
Fe       4.05879292       0.00000000       0.82849764  F        7       0.18890902      -0.11706525      -0.63621399      -6.63442239
Fe       8.11758585       0.00000000       0.82849764  F        7      -0.00000000      -0.11493253      -0.82500175      -6.63988949
Fe       2.02939646       3.51501778       0.82849764  F        7      -0.00000000      -0.25858819      -0.78031867      -6.64079552
Fe       6.08818939       3.51501778       0.82849764  F        7      -0.03579044       0.15033532      -0.26129907      -6.63443917
Fe      10.14698231       3.51501778       0.82849764  F        7       0.03579044       0.15033532      -0.26129907      -6.63443917
Fe       4.05879292       7.03003556       0.82849764  F        7      -0.14728987      -0.10854286      -0.41700883      -6.62367451
Fe       8.11758585       7.03003556       0.82849764  F        7       0.00000000       0.15802296      -0.50483960      -6.62887860
Fe      12.17637877       7.03003556       0.82849764  F        7       0.14728987      -0.10854286      -0.41700883      -6.62367451
Fe       2.02939646       1.17167259       1.65699527  F        6      -0.00000000       0.06010938      -0.51410062      -7.05220110
Fe       6.08818939       1.17167259       1.65699527  F        6      -0.20928736      -0.03152855      -0.50704153      -7.05215800
Fe      10.14698231       1.17167259       1.65699527  F        6       0.20928736      -0.03152855      -0.50704153      -7.05215800
Fe       4.05879292       4.68669037       1.65699527  F        6      -0.01058722       0.10396455      -0.56909940      -7.00050351
Fe       8.11758585       4.68669037       1.65699527  F        6       0.00000000      -0.15869341      -0.88102094      -7.05691635
Fe      12.17637877       4.68669037       1.65699527  F        6       0.01058722       0.10396455      -0.56909940      -7.00050351
Fe       6.08818939       8.20170816       1.65699527  F        6       0.11382628      -0.00757510      -0.44972326      -7.01264367
Fe      10.14698231       8.20170816       1.65699527  F        6      -0.11382628      -0.00757510      -0.44972326      -7.01264367
Fe      14.20577523       8.20170816       1.65699527  F        6      -0.00000000       0.28762880      -0.46170548      -6.97255481
Fe      -0.00000000       2.34334519       2.48549291  F        5       0.32245885       0.20311523      -0.82093418      -7.11481217
Fe       4.05879292       2.34334519       2.48549291  F        5      -0.32245885       0.20311523      -0.82093418      -7.11481217
Fe       8.11758585       2.34334519       2.48549291  F        5      -0.00000000       0.04883643      -0.92774932      -7.13111303
Fe       2.02939646       5.85836297       2.48549291  F        5       0.00000000       0.75518995      -0.69019121      -7.12139267
Fe       6.08818939       5.85836297       2.48549291  F        5      -0.02922086      -0.55378183      -0.91387140      -7.12399141
Fe      10.14698231       5.85836297       2.48549291  F        5       0.02922086      -0.55378183      -0.91387140      -7.12399141
Fe       4.05879292       9.37338075       2.48549291  F        5       0.20336797       0.29784304      -0.64152351      -7.11910624
Fe       8.11758585       9.37338075       2.48549291  F        5      -0.00000000      -0.53832791      -1.05266861      -7.13629168
Fe      12.17637877       9.37338075       2.48549291  F        5      -0.20336797       0.29784304      -0.64152351      -7.11910624
Fe       0.15072374       0.11614520       3.03972390  T        4      -0.00419245       0.01134462       0.02655872      -7.17972503
Fe       3.90806919       0.11614520       3.03972390  T        4       0.00419245       0.01134462       0.02655872      -7.17972503
Fe       8.11758585       0.06626102       3.02010571  T        4      -0.00000000      -0.00372629      -0.03975634      -7.18388984
Fe       2.02939646       3.69129782       3.02108661  T        4       0.00000000       0.01229946      -0.01819118      -7.15732137
Fe       6.12087180       3.34317282       3.09482889  T        4      -0.00803532       0.02110935      -0.00484699      -7.20694835
Fe      10.11429989       3.34317282       3.09482889  T        4       0.00803532       0.02110935      -0.00484699      -7.20694835
Fe       4.24395125       7.11767675       3.07954041  T        4      -0.01793117      -0.01542122       0.01041051      -7.23062093
Fe       8.11758585       6.91980051       3.07113904  T        4      -0.00000000      -0.00617321       0.01558613      -7.22839345
Fe      11.99122045       7.11767675       3.07954041  T        4       0.01793117      -0.01542122       0.01041051      -7.23062093
Fe       2.02939646       1.44181377       4.05348563  T        3      -0.00000000      -0.01109496       0.00542849      -7.03644982
Fe       6.08308113       0.96814330       4.01192352  T        3      -0.00427757      -0.02955200      -0.01071584      -7.02816998
Fe      10.15209057       0.96814330       4.01192352  T        3       0.00427757      -0.02955200      -0.01071584      -7.02816998
Fe       4.18424432       4.71335776       4.00395371  T        3      -0.01166926       0.00101774      -0.00276819      -7.18085200
Fe       8.11758585       4.69337656       3.91516148  T        3       0.00000000       0.03344238       0.01904353      -6.95864835
Fe      12.05092737       4.71335776       4.00395371  T        3       0.01166926       0.00101774      -0.00276819      -7.18085200
Fe       6.27326465       8.41229497       4.05103741  T        3       0.00155540       0.00956547      -0.01375009      -7.09953590
Fe       9.96190705       8.41229497       4.05103741  T        3      -0.00155540       0.00956547      -0.01375009      -7.09953590
Fe      14.20577523       7.97413024       4.00459428  T        3      -0.00000000       0.00546721       0.00464198      -7.18856542
Fe      -0.16576069       2.42725314       4.67751124  T        2       0.00314498      -0.03718274      -0.02973097      -6.59619535
Fe       4.22455361       2.42725314       4.67751124  T        2      -0.00314498      -0.03718274      -0.02973097      -6.59619535
Fe       8.11758585       2.08471920       4.76227558  T        2      -0.00000000       0.02920252      -0.00228545      -6.46711105
Fe       2.02939646       5.64255031       4.74556011  T        2      -0.00000000      -0.04343358      -0.01462320      -6.65532515
Fe       6.12922754       6.09201474       4.67569258  T        2      -0.00279685      -0.00371459      -0.01033066      -6.67495055
Fe      10.10594415       6.09201474       4.67569258  T        2       0.00279685      -0.00371459      -0.01033066      -6.67495055
Fe       4.02593486       9.10096428       4.72368037  T        2      -0.01293623      -0.00557065       0.00700191      -6.67181501
Fe       8.11758585       9.81412150       4.66880152  T        2      -0.00000000      -0.04167889      -0.01057584      -6.68145335
Fe      12.20923683       9.10096428       4.72368037  T        2       0.01293623      -0.00557065       0.00700191      -6.67181501
Fe      -0.31953076      -0.07630403       5.19866761  T        1       0.00390656      -0.02162689       0.00444721      -6.13059600
Fe       4.37832368      -0.07630403       5.19866761  T        1      -0.00390656      -0.02162689       0.00444721      -6.13059600
Fe       8.11758585      -0.40126745       5.16208161  T        1       0.00000000       0.01417204      -0.02349149      -6.19470035
Fe       2.02939646       3.39139121       5.22040967  T        1      -0.00000000      -0.00321870       0.00207675      -6.11021817
Fe       6.15172567       3.89404588       5.30282131  T        1      -0.00821064       0.01676164      -0.00089051      -6.25313659
Fe      10.08344602       3.89404588       5.30282131  T        1       0.00821064       0.01676164      -0.00089051      -6.25313659
Fe       3.87185591       6.80556287       5.23293538  T        1      -0.02668042      -0.00211185       0.00230878      -6.17596969
Fe       8.11758585       7.49737864       5.20523723  T        1      -0.00000000      -0.03157205       0.00311940      -6.11086959
Fe      12.36331579       6.80556287       5.23293538  T        1       0.02668042      -0.00211185       0.00230878      -6.17596969
N        7.49513252       3.31253421       6.37079276  T        0       0.04126555      -0.00824394      -0.00984213      -8.30914237
N        8.74003918       3.31253421       6.37079276  T        0      -0.04126555      -0.00824394      -0.00984213      -8.30914237
