74
Lattice="12.176378772032349 0.0 0.0 6.088189386016174 10.545053342681582 0.0 0.0 0.0 20.0" Properties=species:S:1:pos:R:3:move_mask:L:1:tags:I:1:forces:R:3:energies:R:1 energy=-500.1949646289999 stress="0.001074925919560793 -7.20281537839846e-16 6.292465166630259e-16 -7.20281537839846e-16 0.0008798858664211621 -8.128904192261282e-06 6.292465166630259e-16 -8.128904192261282e-06 0.00023718975496541734" free_energy=-500.1949646289999 pbc="T T F"
Fe      -0.00000000       2.34334519       0.00000000  F        8      -0.19030709      -0.14445667       1.00030124      -5.78514962
Fe       4.05879292       2.34334519       0.00000000  F        8       0.19030709      -0.14445667       1.00030124      -5.78514962
Fe       8.11758585       2.34334519       0.00000000  F        8      -0.00000000      -0.00533368       0.57050203      -5.81829848
Fe       2.02939646       5.85836297       0.00000000  F        8       0.00000000      -0.13261005       1.17105605      -5.77945184
Fe       6.08818939       5.85836297       0.00000000  F        8       0.00088998       0.23416578       1.24952601      -5.76896438
Fe      10.14698231       5.85836297       0.00000000  F        8      -0.00088998       0.23416578       1.24952601      -5.76896438
Fe       4.05879292       9.37338075       0.00000000  F        8      -0.04163768      -0.14007366       1.46433658      -5.74185961
Fe       8.11758585       9.37338075       0.00000000  F        8       0.00000000       0.13831527       1.07955745      -5.77506511
Fe      12.17637877       9.37338075       0.00000000  F        8       0.04163768      -0.14007366       1.46433658      -5.74185961
Fe       0.00000000       0.00000000       0.82849764  F        7      -0.18996038      -0.27808598      -0.35360380      -6.62602391
Fe       4.05879292       0.00000000       0.82849764  F        7       0.18996038      -0.27808598      -0.35360380      -6.62602391
Fe       8.11758585       0.00000000       0.82849764  F        7       0.00000000      -0.06980533      -0.79736171      -6.63794432
Fe       2.02939646       3.51501778       0.82849764  F        7      -0.00000000      -0.26626887      -0.82884845      -6.69212824
Fe       6.08818939       3.51501778       0.82849764  F        7      -0.17315091      -0.05598996      -0.00342653      -6.68028286
Fe      10.14698231       3.51501778       0.82849764  F        7       0.17315091      -0.05598996      -0.00342653      -6.68028286
Fe       4.05879292       7.03003556       0.82849764  F        7      -0.13974543       0.07254276      -0.44199109      -6.62383452
Fe       8.11758585       7.03003556       0.82849764  F        7      -0.00000000       0.12145550      -0.58014347      -6.62048165
Fe      12.17637877       7.03003556       0.82849764  F        7       0.13974543       0.07254276      -0.44199109      -6.62383452
Fe       2.02939646       1.17167259       1.65699527  F        6       0.00000000      -0.20010802      -1.01751360      -7.07248788
Fe       6.08818939       1.17167259       1.65699527  F        6      -0.42586138       0.00288381      -0.38570693      -7.08464838
Fe      10.14698231       1.17167259       1.65699527  F        6       0.42586138       0.00288381      -0.38570693      -7.08464838
Fe       4.05879292       4.68669037       1.65699527  F        6      -0.33308459       0.46298485      -0.73210357      -7.02824267
Fe       8.11758585       4.68669037       1.65699527  F        6      -0.00000000      -0.13776034      -1.06466637      -7.00113076
Fe      12.17637877       4.68669037       1.65699527  F        6       0.33308459       0.46298485      -0.73210357      -7.02824267
Fe       6.08818939       8.20170816       1.65699527  F        6       0.01827996      -0.32515603      -0.79080071      -7.02800545
Fe      10.14698231       8.20170816       1.65699527  F        6      -0.01827996      -0.32515603      -0.79080071      -7.02800545
Fe      14.20577523       8.20170816       1.65699527  F        6       0.00000000       0.95935058      -0.55479126      -6.94133740
Fe       0.14579440       2.48782447       2.20627542  T        5      -0.00969567       0.00463733       0.00560774      -7.15047075
Fe       3.91299852       2.48782447       2.20627542  T        5       0.00969567       0.00463733       0.00560774      -7.15047075
Fe       8.11758585       2.37971769       2.11915938  T        5      -0.00000000       0.00459948       0.01196031      -7.11343638
Fe       2.02939646       6.01345990       2.21262973  T        5      -0.00000000       0.00233124      -0.00617552      -7.12703929
Fe       6.09303941       5.60691759       2.23493051  T        5      -0.00175415       0.00552661      -0.00442952      -7.17285657
Fe      10.14213229       5.60691759       2.23493051  T        5       0.00175415       0.00552661      -0.00442952      -7.17285657
Fe       4.10296914       9.42772509       2.30967636  T        5       0.00522395      -0.00689036       0.00502549      -7.17319629
Fe       8.11758585       9.28473391       2.22612378  T        5      -0.00000000      -0.00778414       0.00650516      -7.22508258
Fe      12.13220256       9.42772509       2.30967636  T        5      -0.00522395      -0.00689036       0.00502549      -7.17319629
Fe       0.15784504       0.23465643       3.07122752  T        4       0.00102867       0.00038332      -0.00506436      -7.28607619
Fe       3.90094789       0.23465643       3.07122752  T        4      -0.00102867       0.00038332      -0.00506436      -7.28607619
Fe       8.11758585       0.16802837       2.99454389  T        4      -0.00000000       0.01029838      -0.00123334      -7.17182483
Fe       2.02939646       3.85337572       3.03903862  T        4       0.00000000      -0.01261884       0.01414658      -7.15956150
Fe       6.10909518       3.15356579       3.13369673  T        4      -0.00763721       0.00136370       0.00260109      -7.23894569
Fe      10.12607652       3.15356579       3.13369673  T        4       0.00763721       0.00136370       0.00260109      -7.23894569
Fe       4.34328422       7.05188252       3.07155473  T        4       0.00259744      -0.00426624      -0.00006269      -7.29334230
Fe       8.11758585       6.89052654       3.06223066  T        4       0.00000000       0.00871860       0.00037263      -7.33542339
Fe      11.89188748       7.05188252       3.07155473  T        4      -0.00259744      -0.00426624      -0.00006269      -7.29334230
Fe       2.02939646       1.51149719       3.92988254  T        3       0.00000000       0.01065912       0.01956939      -7.02377092
Fe       6.06709258       0.83404343       3.99707520  T        3       0.00408760      -0.00336190      -0.00096186      -6.95897480
Fe      10.16807912       0.83404343       3.99707520  T        3      -0.00408760      -0.00336190      -0.00096186      -6.95897480
Fe       4.28274181       4.69107001       3.94709121  T        3      -0.00106506      -0.00272934      -0.00086442      -7.13363959
Fe       8.11758585       4.67982824       3.89502634  T        3       0.00000000       0.00571958      -0.00520227      -7.00885936
Fe      11.95242989       4.69107001       3.94709121  T        3       0.00106506      -0.00272934      -0.00086442      -7.13363959
Fe       6.29819679       8.41945786       3.92492817  T        3       0.00266541       0.00281315      -0.01280859      -7.11493522
Fe       9.93697491       8.41945786       3.92492817  T        3      -0.00266541       0.00281315      -0.01280859      -7.11493522
Fe      14.20577523       7.88194865       3.91936309  T        3       0.00000000       0.02271230      -0.00137997      -7.15255792
Fe      -0.19928251       2.26961858       4.47298060  T        2       0.00247728      -0.01412691       0.00998934      -6.64273173
Fe       4.25807543       2.26961858       4.47298060  T        2      -0.00247728      -0.01412691       0.00998934      -6.64273173
Fe       8.11758585       2.21811541       4.52679199  T        2      -0.00000000      -0.00226419      -0.00791717      -6.56252501
Fe       2.02939646       5.55863507       4.63516398  T        2       0.00000000       0.00034159      -0.00456181      -6.67704799
Fe       6.20797503       6.11433863       4.46381470  T        2       0.00480405       0.00335833       0.00084379      -6.75266974
Fe      10.02719667       6.11433863       4.46381470  T        2      -0.00480405       0.00335833       0.00084379      -6.75266974
Fe       4.02958582       8.96939591       4.59958296  T        2       0.00899616      -0.00915912       0.01681744      -6.67840789
Fe       8.11758585       9.87074069       4.47613870  T        2      -0.00000000       0.00348615      -0.00095056      -6.74464646
Fe      12.20558587       8.96939591       4.59958296  T        2      -0.00899616      -0.00915912       0.01681744      -6.67840789
Fe      -0.34195861      -0.25183999       5.20819659  T        1       0.00565715       0.00704355      -0.00230541      -6.07413659
Fe       4.40075153      -0.25183999       5.20819659  T        1      -0.00565715       0.00704355      -0.00230541      -6.07413659
Fe       8.11758585      -0.58053170       5.03170640  T        1       0.00000000      -0.00819903      -0.00458748      -6.13618067
Fe       2.02939646       3.37079402       5.20868544  T        1      -0.00000000       0.01656794      -0.02589549      -5.97698436
Fe       6.22870316       3.95932018       5.24568435  T        1      -0.00183963      -0.01220492      -0.00235580      -6.19696049
Fe      10.00646854       3.95932018       5.24568435  T        1       0.00183963      -0.01220492      -0.00235580      -6.19696049
Fe       3.79385079       6.70236388       5.20649188  T        1       0.00435286      -0.01188243      -0.00120644      -6.13575058
Fe       8.11758585       7.64841502       5.17819080  T        1       0.00000000      -0.01041963      -0.01051998      -6.08741763
Fe      12.44132091       6.70236388       5.20649188  T        1      -0.00435286      -0.01188243      -0.00120644      -6.13575058
N       25.76099681      13.75832777       6.30896701  T        0      -0.04314482      -0.01501146       0.00168244      -8.30703452
N       27.00331118      13.75832777       6.30896701  T        0       0.04314482      -0.01501146       0.00168244      -8.30703452
